# Region type : patch LPA
# Faces  :    472
# Area   :    1.426297e-04
# Time        	Area	areaNormalIntegrate(U)
0.9           	1.426297e-04	3.705957e-24
