# Region type : patch LPA
# Faces  :    472
# Area   :    1.426297e-04
# Time        	Area	areaNormalIntegrate(U)
5.35          	1.426297e-04	4.372338e-05
