# Region type : patch LPA
# Faces  :    472
# Area   :    1.426297e-04
# Time        	Area	areaNormalIntegrate(U)
1             	1.426297e-04	-7.607019e-16
