# Region type : patch RPA
# Faces  :    472
# Area   :    1.426297e-04
# Time        	Area	areaNormalIntegrate(U)
2.9           	1.426297e-04	5.301727e-06
