# Region type : patch RPA
# Faces  :    472
# Area   :    1.426297e-04
# Time        	Area	areaNormalIntegrate(U)
5.7           	1.426297e-04	5.321655e-06
