# Region type : patch RPA
# Faces  :    472
# Area   :    1.426297e-04
# Time        	Area	areaNormalIntegrate(U)
5.6           	1.426297e-04	5.948506e-06
