# Region type : patch LPA
# Faces  :    472
# Area   :    1.426297e-04
# Time        	Area	areaNormalIntegrate(U)
1.4           	1.426297e-04	3.163766e-05
