# Region type : patch IVC
# Faces  :    476
# Area   :    1.426297e-04
# Time        	Area	areaNormalIntegrate(U)
7.4           	1.426297e-04	-5.017152e-05
