# Region type : patch LPA
# Faces  :    472
# Area   :    1.426297e-04
# Time        	Area	areaNormalIntegrate(U)
1.7           	1.426297e-04	3.825400e-05
