# Region type : patch RPA
# Faces  :    472
# Area   :    1.426297e-04
# Time        	Area	areaNormalIntegrate(U)
1.3           	1.426297e-04	1.475182e-12
