# Region type : patch IVC
# Faces  :    476
# Area   :    1.426297e-04
# Time        	Area	areaNormalIntegrate(U)
0             	1.426297e-04	0.000000e+00
