# Region type : patch RPA
# Faces  :    472
# Area   :    1.426297e-04
# Time        	Area	areaNormalIntegrate(U)
3.5           	1.426297e-04	7.307103e-06
